HETATM    1  C1  UGA     1      -3.747  -4.885  -0.005  0.00  0.00     0.292 C 
HETATM    2  C2  UGA     1      -4.601  -4.513  -1.228  0.00  0.00     0.204 C 
HETATM    3  C3  UGA     1      -4.721  -2.998  -1.380  0.00  0.00     0.183 C 
HETATM    4  C4  UGA     1      -5.163  -2.362  -0.052  0.00  0.00     0.187 C 
HETATM    5  O4  UGA     1      -5.035  -0.944  -0.229  0.00  0.00    -0.348 OA
HETATM    6  C5  UGA     1      -4.293  -2.835   1.124  0.00  0.00     0.180 C 
HETATM    7  O5  UGA     1      -4.258  -4.273   1.156  0.00  0.00    -0.348 OA
HETATM    8  C1  4GA     2      -6.156  -0.116  -0.005  0.00  0.00     0.292 C 
HETATM    9  C2  4GA     2      -6.397   0.783  -1.228  0.00  0.00     0.204 C 
HETATM   10  C3  4GA     2      -5.288   1.822  -1.380  0.00  0.00     0.183 C 
HETATM   11  C4  4GA     2      -5.065   2.563  -0.052  0.00  0.00     0.187 C 
HETATM   12  O4  4GA     2      -3.878   3.348  -0.229  0.00  0.00    -0.348 OA
HETATM   13  C5  4GA     2      -4.893   1.589   1.124  0.00  0.00     0.180 C 
HETATM   14  O5  4GA     2      -5.995   0.664   1.156  0.00  0.00    -0.348 OA
HETATM   15  C1  UGA     3      -3.930   4.740  -0.005  0.00  0.00     0.292 C 
HETATM   16  C2  UGA     3      -3.376   5.489  -1.228  0.00  0.00     0.204 C 
HETATM   17  C3  UGA     3      -1.872   5.269  -1.380  0.00  0.00     0.183 C 
HETATM   18  C4  UGA     3      -1.155   5.558  -0.052  0.00  0.00     0.187 C 
HETATM   19  O4  UGA     3       0.199   5.119  -0.229  0.00  0.00    -0.348 OA
HETATM   20  C5  UGA     3      -1.808   4.816   1.124  0.00  0.00     0.180 C 
HETATM   21  O5  UGA     3      -3.219   5.102   1.156  0.00  0.00    -0.348 OA
HETATM   22  C1  4GA     4       1.256   6.027  -0.005  0.00  0.00     0.292 C 
HETATM   23  C2  4GA     4       2.187   6.062  -1.228  0.00  0.00     0.204 C 
HETATM   24  C3  4GA     4       2.953   4.750  -1.380  0.00  0.00     0.183 C 
HETATM   25  C4  4GA     4       3.626   4.368  -0.052  0.00  0.00     0.187 C 
HETATM   26  O4  4GA     4       4.127   3.036  -0.229  0.00  0.00    -0.348 OA
HETATM   27  C5  4GA     4       2.638   4.417   1.124  0.00  0.00     0.180 C 
HETATM   28  O5  4GA     4       1.982   5.697   1.156  0.00  0.00    -0.348 OA
HETATM   29  C1  UGA     5       5.495   2.775  -0.005  0.00  0.00     0.292 C 
HETATM   30  C2  UGA     5       6.102   2.071  -1.228  0.00  0.00     0.204 C 
HETATM   31  C3  UGA     5       5.554   0.653  -1.380  0.00  0.00     0.183 C 
HETATM   32  C4  UGA     5       5.676  -0.111  -0.052  0.00  0.00     0.187 C 
HETATM   33  O4  UGA     5       4.947  -1.334  -0.229  0.00  0.00    -0.348 OA
HETATM   34  C5  UGA     5       5.098   0.692   1.124  0.00  0.00     0.180 C 
HETATM   35  O5  UGA     5       5.690   2.002   1.156  0.00  0.00    -0.348 OA
HETATM   36  C1  4GA     6       5.597  -2.566  -0.005  0.00  0.00     0.292 C 
HETATM   37  C2  4GA     6       5.424  -3.480  -1.228  0.00  0.00     0.204 C 
HETATM   38  C3  4GA     6       3.974  -3.935  -1.380  0.00  0.00     0.183 C 
HETATM   39  C4  4GA     6       3.452  -4.507  -0.052  0.00  0.00     0.187 C 
HETATM   40  O4  4GA     6       2.041  -4.699  -0.229  0.00  0.00    -0.348 OA
HETATM   41  C5  4GA     6       3.719  -3.555   1.124  0.00  0.00     0.180 C 
HETATM   42  O5  4GA     6       5.113  -3.200   1.156  0.00  0.00    -0.348 OA
HETATM   43  C1  UGA     7       1.484  -5.976  -0.005  0.00  0.00     0.292 C 
HETATM   44  C2  UGA     7       0.661  -6.411  -1.228  0.00  0.00     0.204 C 
HETATM   45  C3  UGA     7      -0.599  -5.560  -1.380  0.00  0.00     0.183 C 
HETATM   46  C4  UGA     7      -1.372  -5.509  -0.052  0.00  0.00     0.187 C 
HETATM   47  O4  UGA     7      -2.401  -4.526  -0.229  0.00  0.00    -0.348 OA
HETATM   48  C5  UGA     7      -0.460  -5.124   1.124  0.00  0.00     0.180 C 
HETATM   49  O5  UGA     7       0.686  -5.993   1.156  0.00  0.00    -0.348 OA
HETATM   50  C6  UGA     1      -4.748  -2.381   2.512  0.00  0.00     0.202 C 
HETATM   51  O6  UGA     1      -5.980  -2.946   2.930  0.00  0.00    -0.386 OA
HETATM   52  CA  2HP     8      -7.095  -2.071   2.930  0.00  0.00     0.199 C 
HETATM   53  CB  2HP     8      -8.201  -2.767   3.744  0.00  0.00     0.138 C 
HETATM   54  CG2 2HP     8      -8.589  -4.090   3.056  0.00  0.00     0.041 C 
HETATM   55  OG1 2HP     8      -9.347  -1.916   3.818  0.00  0.00    -0.394 OA
HETATM   56  HG1 2HP     8      -9.996  -2.302   4.410  0.00  0.00     0.210 HD
HETATM   57  O3  UGA     1      -5.657  -2.726  -2.401  0.00  0.00    -0.390 OA
HETATM   58  H3O UGA     1      -5.798  -1.759  -2.431  0.00  0.00     0.210 HD
HETATM   59  O2  UGA     1      -4.014  -5.138  -2.364  0.00  0.00    -0.388 OA
HETATM   60  H2O UGA     1      -4.603  -4.948  -3.212  0.00  0.00     0.210 HD
HETATM   61  O2  4GA     2      -6.520  -0.065  -2.364  0.00  0.00    -0.388 OA
HETATM   62  H2O 4GA     2      -6.739   0.514  -3.212  0.00  0.00     0.210 HD
HETATM   63  C6  UGA     7      -1.099  -5.196   2.512  0.00  0.00     0.202 C 
HETATM   64  O6  UGA     7      -1.426  -6.512   2.930  0.00  0.00    -0.386 OA
HETATM   65  CA  2HP    11      -2.805  -6.838   2.930  0.00  0.00     0.199 C 
HETATM   66  CB  2HP    11      -2.949  -8.137   3.744  0.00  0.00     0.138 C 
HETATM   67  CG2 2HP    11      -2.205  -9.278   3.026  0.00  0.00     0.041 C 
HETATM   68  OG1 2HP    11      -4.334  -8.472   3.864  0.00  0.00    -0.394 OA
HETATM   69  HG1 2HP    11      -4.436  -9.200   4.482  0.00  0.00     0.210 HD
HETATM   70  O3  UGA     7      -1.396  -6.122  -2.401  0.00  0.00    -0.390 OA
HETATM   71  H3O UGA     7      -2.241  -5.630  -2.431  0.00  0.00     0.210 HD
HETATM   72  O3  4GA     2      -5.658   2.723  -2.401  0.00  0.00    -0.390 OA
HETATM   73  H3O 4GA     2      -4.990   3.436  -2.431  0.00  0.00     0.210 HD
HETATM   74  C6  4GA     2      -4.821   2.229   2.512  0.00  0.00     0.198 C 
HETATM   75  O6  4GA     2      -6.032   2.839   2.930  0.00  0.00    -0.398 OA
HETATM   76  H6O 4GA     2      -6.524   3.087   2.150  0.00  0.00     0.209 HD
HETATM   77  O2  UGA     7       1.515  -6.341  -2.364  0.00  0.00    -0.388 OA
HETATM   78  H2O UGA     7       0.999  -6.683  -3.212  0.00  0.00     0.210 HD
HETATM   79  O2  UGA     3      -4.116   5.056  -2.364  0.00  0.00    -0.388 OA
HETATM   80  H2O UGA     3      -3.800   5.588  -3.212  0.00  0.00     0.210 HD
HETATM   81  C6  4GA     6       3.377  -4.100   2.512  0.00  0.00     0.198 C 
HETATM   82  O6  4GA     6       4.203  -5.175   2.930  0.00  0.00    -0.398 OA
HETATM   83  H6O 4GA     6       4.539  -5.612   2.150  0.00  0.00     0.209 HD
HETATM   84  O3  4GA     6       3.916  -4.909  -2.401  0.00  0.00    -0.390 OA
HETATM   85  H3O 4GA     6       3.004  -5.261  -2.431  0.00  0.00     0.210 HD
HETATM   86  O3  UGA     3      -1.399   6.121  -2.401  0.00  0.00    -0.390 OA
HETATM   87  H3O UGA     3      -0.424   6.044  -2.431  0.00  0.00     0.210 HD
HETATM   88  C6  UGA     3      -1.264   5.159   2.512  0.00  0.00     0.202 C 
HETATM   89  O6  UGA     3      -1.541   6.486   2.930  0.00  0.00    -0.386 OA
HETATM   90  CA  2HP     9      -0.440   7.378   2.930  0.00  0.00     0.199 C 
HETATM   91  CB  2HP     9      -0.873   8.611   3.744  0.00  0.00     0.138 C 
HETATM   92  CG2 2HP     9      -2.035   9.320   3.023  0.00  0.00     0.041 C 
HETATM   93  OG1 2HP     9       0.230   9.513   3.868  0.00  0.00    -0.394 OA
HETATM   94  HG1 2HP     9       0.018  10.193   4.510  0.00  0.00     0.210 HD
HETATM   95  O2  4GA     6       5.902  -2.769  -2.364  0.00  0.00    -0.388 OA
HETATM   96  H2O 4GA     6       5.848  -3.386  -3.212  0.00  0.00     0.210 HD
HETATM   97  O2  4GA     4       1.438   6.258  -2.430  0.00  0.00    -0.388 OA
HETATM   98  H2O 4GA     4       1.796   7.007  -2.913  0.00  0.00     0.210 HD
HETATM   99  C6  UGA     5       5.311   0.085   2.512  0.00  0.00     0.202 C 
HETATM  100  O6  UGA     5       6.666   0.059   2.930  0.00  0.00    -0.386 OA
HETATM  101  CA  2HP    10       7.291  -1.213   2.930  0.00  0.00     0.199 C 
HETATM  102  CB  2HP    10       8.589  -1.064   3.744  0.00  0.00     0.138 C 
HETATM  103  CG2 2HP    10       9.537  -0.085   3.026  0.00  0.00     0.041 C 
HETATM  104  OG1 2HP    10       9.225  -2.340   3.864  0.00  0.00    -0.394 OA
HETATM  105  HG1 2HP    10       9.942  -2.282   4.500  0.00  0.00     0.210 HD
HETATM  106  O3  UGA     5       6.279   0.001  -2.401  0.00  0.00    -0.390 OA
HETATM  107  H3O UGA     5       5.987  -0.931  -2.431  0.00  0.00     0.210 HD
HETATM  108  C6  4GA     4       3.245   4.204   2.512  0.00  0.00     0.198 C 
HETATM  109  O6  4GA     4       4.110   5.249   2.930  0.00  0.00    -0.398 OA
HETATM  110  H6O 4GA     4       4.908   5.336   2.253  0.00  0.00     0.209 HD
HETATM  111  O3  4GA     4       3.914   4.910  -2.401  0.00  0.00    -0.390 OA
HETATM  112  H3O 4GA     4       4.460   4.100  -2.431  0.00  0.00     0.210 HD
HETATM  113  O2  UGA     5       5.845   2.889  -2.364  0.00  0.00    -0.388 OA
HETATM  114  H2O UGA     5       6.294   2.461  -3.212  0.00  0.00     0.210 HD
