HETATM    1  C1  4GA     1      -1.107  -3.814   0.328  1.00 17.45     0.292 C 
HETATM    2  C2  4GA     1      -1.939  -4.010  -0.956  1.00 20.31     0.204 C 
HETATM    3  C3  4GA     1      -2.621  -2.666  -1.318  1.00 22.02     0.183 C 
HETATM    4  C4  4GA     1      -3.423  -2.162  -0.083  1.00 21.10     0.187 C 
HETATM    5  O4  4GA     1      -3.841  -0.825  -0.391  1.00 23.43    -0.348 OA
HETATM    6  C5  4GA     1      -2.536  -2.152   1.180  1.00 22.83     0.180 C 
HETATM    7  O5  4GA     1      -1.853  -3.363   1.411  1.00 19.71    -0.348 OA
HETATM    8  C1  4GA     2      -5.193  -0.518  -0.101  1.00 32.38     0.292 C 
HETATM    9  C2  4GA     2      -5.697   0.257  -1.374  1.00 35.84     0.204 C 
HETATM   10  C3  4GA     2      -4.896   1.584  -1.518  1.00 37.38     0.183 C 
HETATM   11  C4  4GA     2      -4.771   2.332  -0.194  1.00 33.96     0.187 C 
HETATM   12  O4  4GA     2      -3.739   3.391  -0.319  1.00 33.12    -0.348 OA
HETATM   13  C5  4GA     2      -4.426   1.407   0.965  1.00 35.36     0.180 C 
HETATM   14  O5  4GA     2      -5.317   0.314   1.034  1.00 29.19    -0.348 OA
HETATM   15  C1  4GA     3      -3.897   4.754   0.042  1.00 42.76     0.292 C 
HETATM   16  C2  4GA     3      -3.327   5.688  -1.042  1.00 34.13     0.204 C 
HETATM   17  C3  4GA     3      -1.808   5.480  -1.165  1.00 40.06     0.183 C 
HETATM   18  C4  4GA     3      -1.192   5.700   0.207  1.00 41.85     0.187 C 
HETATM   19  O4  4GA     3       0.155   5.118   0.054  1.00 47.58    -0.348 OA
HETATM   20  C5  4GA     3      -1.890   5.030   1.355  1.00 40.19     0.180 C 
HETATM   21  O5  4GA     3      -3.309   4.964   1.370  1.00 39.20    -0.348 OA
HETATM   22  C1  4GA     4       1.243   6.046   0.213  1.00 44.47     0.292 C 
HETATM   23  C2  4GA     4       2.028   6.116  -1.106  1.00 41.38     0.204 C 
HETATM   24  C3  4GA     4       2.901   4.873  -1.340  1.00 41.29     0.183 C 
HETATM   25  C4  4GA     4       3.511   4.283  -0.076  1.00 42.96     0.187 C 
HETATM   26  O4  4GA     4       3.890   2.900  -0.425  1.00 30.29    -0.348 OA
HETATM   27  C5  4GA     4       2.527   4.277   1.080  1.00 41.83     0.180 C 
HETATM   28  O5  4GA     4       1.971   5.578   1.323  1.00 45.24    -0.348 OA
HETATM   29  C1  4GA     5       5.210   2.720  -0.354  1.00 34.33     0.292 C 
HETATM   30  C2  4GA     5       5.664   1.881  -1.549  1.00 33.33     0.204 C 
HETATM   31  C3  4GA     5       4.987   0.497  -1.524  1.00 27.93     0.183 C 
HETATM   32  C4  4GA     5       5.005  -0.190  -0.204  1.00 22.66     0.187 C 
HETATM   33  O4  4GA     5       3.931  -1.250  -0.428  1.00 25.83    -0.348 OA
HETATM   34  C5  4GA     5       4.663   0.706   0.933  1.00 30.01     0.180 C 
HETATM   35  O5  4GA     5       5.416   1.952   0.957  1.00 31.00    -0.348 OA
HETATM   36  C1  4GA     6       4.043  -2.387   0.408  1.00 21.71     0.292 C 
HETATM   37  C2  4GA     6       3.595  -3.626  -0.431  1.00 20.00     0.204 C 
HETATM   38  C3  4GA     6       2.073  -3.504  -0.823  1.00 18.01     0.183 C 
HETATM   39  C4  4GA     6       1.237  -3.234   0.407  1.00 19.88     0.187 C 
HETATM   40  O4  4GA     6      -0.123  -2.864   0.019  1.00 17.55    -0.348 OA
HETATM   41  C5  4GA     6       1.838  -2.120   1.249  1.00 18.88     0.180 C 
HETATM   42  O5  4GA     6       3.211  -2.305   1.528  1.00 16.52    -0.348 OA
HETATM   43  C6  4GA     1      -3.352  -1.855   2.467  1.00 24.69     0.198 C 
HETATM   44  O6  4GA     1      -2.485  -1.485   3.553  1.00 24.96    -0.398 OA
HETATM   45  HO6 4GA     1      -2.102  -2.184   3.866  1.00 30.00     0.209 HD
HETATM   46  O3  4GA     1      -3.409  -2.765  -2.470  1.00 24.03    -0.390 OA
HETATM   47  HO3 4GA     1      -3.760  -2.007  -2.625  1.00 28.89     0.210 HD
HETATM   48  O2  4GA     1      -1.130  -4.406  -2.024  1.00 20.70    -0.388 OA
HETATM   49  HO2 4GA     1      -1.635  -4.687  -2.652  1.00 24.89     0.210 HD
HETATM   50  O2  4GA     2      -5.519  -0.560  -2.482  1.00 29.05    -0.388 OA
HETATM   51  HO2 4GA     2      -5.790  -1.344  -2.294  1.00 34.91     0.210 HD
HETATM   52  O3  4GA     2      -5.506   2.435  -2.484  1.00 35.78    -0.390 OA
HETATM   53  HO3 4GA     2      -4.975   2.535  -3.143  1.00 42.98     0.210 HD
HETATM   54  C6  4GA     2      -4.434   2.179   2.313  1.00 44.54     0.198 C 
HETATM   55  O6  4GA     2      -5.729   2.638   2.611  1.00 38.77    -0.398 OA
HETATM   56  HO6 4GA     2      -5.716   3.047   3.353  1.00 46.57     0.209 HD
HETATM   57  O3  4GA     6       1.608  -4.688  -1.434  1.00 18.54    -0.390 OA
HETATM   58  HO3 4GA     6       0.786  -4.593  -1.633  1.00 22.30     0.210 HD
HETATM   59  C6  4GA     6       1.060  -2.016   2.608  1.00 19.87     0.198 C 
HETATM   60  O6  4GA     6       1.485  -0.855   3.333  1.00 21.92    -0.398 OA
HETATM   61  HO6 4GA     6       1.535  -1.045   4.162  1.00 26.35     0.209 HD
HETATM   62  O2  4GA     6       4.362  -3.744  -1.568  1.00 19.52    -0.388 OA
HETATM   63  HO2 4GA     6       4.622  -4.559  -1.626  1.00 23.47     0.210 HD
HETATM   64  O2  4GA     3      -3.934   5.424  -2.261  1.00 52.11    -0.388 OA
HETATM   65  HO2 4GA     3      -4.200   4.620  -2.275  1.00 62.58     0.210 HD
HETATM   66  O3  4GA     3      -1.221   6.306  -2.138  1.00 45.12    -0.390 OA
HETATM   67  HO3 4GA     3      -1.267   7.104  -1.890  1.00 54.19     0.210 HD
HETATM   68  C6  4GA     3      -1.535   5.859   2.673  1.00 49.38     0.198 C 
HETATM   69  O6  4GA     3      -0.112   5.871   2.897  1.00 53.69    -0.398 OA
HETATM   70  HO6 4GA     3       0.065   6.284   3.619  1.00 64.47     0.209 HD
HETATM   71  O3  4GA     5       5.583  -0.313  -2.582  1.00 29.28    -0.390 OA
HETATM   72  HO3 4GA     5       5.808   0.180  -3.239  1.00 35.18     0.210 HD
HETATM   73  C6  4GA     5       5.009   0.073   2.308  1.00 25.13     0.198 C 
HETATM   74  O6  4GA     5       6.392  -0.231   2.261  1.00 28.62    -0.398 OA
HETATM   75  HO6 4GA     5       6.652  -0.524   3.019  1.00 34.39     0.209 HD
HETATM   76  O2  4GA     5       5.296   2.585  -2.702  1.00 41.54    -0.388 OA
HETATM   77  HO2 4GA     5       4.451   2.651  -2.732  1.00 49.89     0.210 HD
HETATM   78  O2  4GA     4       1.097   6.243  -2.160  1.00 44.31    -0.388 OA
HETATM   79  HO2 4GA     4       0.639   5.528  -2.226  1.00 53.22     0.210 HD
HETATM   80  O3  4GA     4       3.936   5.205  -2.255  1.00 38.22    -0.390 OA
HETATM   81  HO3 4GA     4       4.586   4.663  -2.157  1.00 45.91     0.210 HD
HETATM   82  C6  4GA     4       3.201   3.822   2.391  1.00 46.92     0.198 C 
HETATM   83  O6  4GA     4       4.250   4.692   2.764  1.00 42.16    -0.398 OA
HETATM   84  HO6 4GA     4       4.140   5.451   2.401  1.00 50.65     0.209 HD
