HETATM    1  C1  4GA     1      -3.753  -4.896  -0.001  0.00  0.00     0.292 C 
HETATM    2  C2  4GA     1      -4.558  -4.486  -1.242  0.00  0.00     0.204 C 
HETATM    3  C3  4GA     1      -4.572  -2.959  -1.355  0.00  0.00     0.183 C 
HETATM    4  C4  4GA     1      -5.141  -2.346  -0.086  0.00  0.00     0.187 C 
HETATM    5  O4  4GA     1      -5.021  -0.923  -0.190  0.00  0.00    -0.348 OA
HETATM    6  C5  4GA     1      -4.371  -2.848   1.148  0.00  0.00     0.180 C 
HETATM    7  O5  4GA     1      -4.304  -4.290   1.154  0.00  0.00    -0.348 OA
HETATM    8  C1  4GA     2      -6.167  -0.118  -0.001  0.00  0.00     0.292 C 
HETATM    9  C2  4GA     2      -6.350   0.766  -1.242  0.00  0.00     0.204 C 
HETATM   10  C3  4GA     2      -5.164   1.729  -1.355  0.00  0.00     0.183 C 
HETATM   11  C4  4GA     2      -5.040   2.558  -0.086  0.00  0.00     0.187 C 
HETATM   12  O4  4GA     2      -3.853   3.350  -0.190  0.00  0.00    -0.348 OA
HETATM   13  C5  4GA     2      -4.952   1.642   1.148  0.00  0.00     0.180 C 
HETATM   14  O5  4GA     2      -6.037   0.690   1.154  0.00  0.00    -0.348 OA
HETATM   15  C1  4GA     3      -3.938   4.748  -0.001  0.00  0.00     0.292 C 
HETATM   16  C2  4GA     3      -3.360   5.441  -1.242  0.00  0.00     0.204 C 
HETATM   17  C3  4GA     3      -1.868   5.116  -1.355  0.00  0.00     0.183 C 
HETATM   18  C4  4GA     3      -1.142   5.535  -0.086  0.00  0.00     0.187 C 
HETATM   19  O4  4GA     3       0.217   5.101  -0.190  0.00  0.00    -0.348 OA
HETATM   20  C5  4GA     3      -1.804   4.895   1.148  0.00  0.00     0.180 C 
HETATM   21  O5  4GA     3      -3.225   5.151   1.154  0.00  0.00    -0.348 OA
HETATM   22  C1  4GA     4       1.258   6.040  -0.001  0.00  0.00     0.292 C 
HETATM   23  C2  4GA     4       2.160   6.020  -1.242  0.00  0.00     0.204 C 
HETATM   24  C3  4GA     4       2.835   4.650  -1.355  0.00  0.00     0.183 C 
HETATM   25  C4  4GA     4       3.615   4.344  -0.086  0.00  0.00     0.187 C 
HETATM   26  O4  4GA     4       4.123   3.010  -0.190  0.00  0.00    -0.348 OA
HETATM   27  C5  4GA     4       2.703   4.462   1.148  0.00  0.00     0.180 C 
HETATM   28  O5  4GA     4       2.017   5.733   1.154  0.00  0.00    -0.348 OA
HETATM   29  C1  4GA     5       5.506   2.782  -0.001  0.00  0.00     0.292 C 
HETATM   30  C2  4GA     5       6.053   2.065  -1.242  0.00  0.00     0.204 C 
HETATM   31  C3  4GA     5       5.403   0.683  -1.355  0.00  0.00     0.183 C 
HETATM   32  C4  4GA     5       5.650  -0.118  -0.086  0.00  0.00     0.187 C 
HETATM   33  O4  4GA     5       4.924  -1.347  -0.190  0.00  0.00    -0.348 OA
HETATM   34  C5  4GA     5       5.174   0.669   1.148  0.00  0.00     0.180 C 
HETATM   35  O5  4GA     5       5.739   1.997   1.154  0.00  0.00    -0.348 OA
HETATM   36  C1  4GA     6       5.608  -2.570  -0.001  0.00  0.00     0.292 C 
HETATM   37  C2  4GA     6       5.388  -3.445  -1.242  0.00  0.00     0.204 C 
HETATM   38  C3  4GA     6       3.903  -3.799  -1.355  0.00  0.00     0.183 C 
HETATM   39  C4  4GA     6       3.431  -4.491  -0.086  0.00  0.00     0.187 C 
HETATM   40  O4  4GA     6       2.017  -4.689  -0.190  0.00  0.00    -0.348 OA
HETATM   41  C5  4GA     6       3.749  -3.628   1.148  0.00  0.00     0.180 C 
HETATM   42  O5  4GA     6       5.140  -3.241   1.154  0.00  0.00    -0.348 OA
HETATM   43  C1  4GA     7       1.487  -5.987  -0.001  0.00  0.00     0.292 C 
HETATM   44  C2  4GA     7       0.666  -6.361  -1.242  0.00  0.00     0.204 C 
HETATM   45  C3  4GA     7      -0.537  -5.420  -1.355  0.00  0.00     0.183 C 
HETATM   46  C4  4GA     7      -1.372  -5.482  -0.086  0.00  0.00     0.187 C 
HETATM   47  O4  4GA     7      -2.408  -4.501  -0.190  0.00  0.00    -0.348 OA
HETATM   48  C5  4GA     7      -0.499  -5.193   1.148  0.00  0.00     0.180 C 
HETATM   49  O5  4GA     7       0.670  -6.040   1.154  0.00  0.00    -0.348 OA
HETATM   50  C6  4GA     1      -5.062  -2.482   2.459  0.00  0.00     0.198 C 
HETATM   51  O6  4GA     1      -6.356  -3.054   2.544  0.00  0.00    -0.398 OA
HETATM   52  H6O 4GA     1      -6.232  -4.009   2.438  0.00  0.00     0.209 HD
HETATM   53  O3  4GA     1      -5.373  -2.559  -2.462  0.00  0.00    -0.390 OA
HETATM   54  H3O 4GA     1      -5.133  -3.153  -3.191  0.00  0.00     0.210 HD
HETATM   55  O2  4GA     1      -4.107  -5.074  -2.444  0.00  0.00    -0.388 OA
HETATM   56  H2O 4GA     1      -3.129  -5.119  -2.450  0.00  0.00     0.210 HD
HETATM   57  O2  4GA     2      -6.527   0.047  -2.444  0.00  0.00    -0.388 OA
HETATM   58  H2O 4GA     2      -5.953  -0.745  -2.450  0.00  0.00     0.210 HD
HETATM   59  C6  4GA     2      -5.097   2.411   2.459  0.00  0.00     0.198 C 
HETATM   60  O6  4GA     2      -6.351   3.066   2.544  0.00  0.00    -0.398 OA
HETATM   61  H6O 4GA     2      -7.020   2.373   2.438  0.00  0.00     0.209 HD
HETATM   62  O3  4GA     2      -5.351   2.605  -2.462  0.00  0.00    -0.390 OA
HETATM   63  H3O 4GA     2      -5.665   2.048  -3.191  0.00  0.00     0.210 HD
HETATM   64  C6  4GA     7      -1.217  -5.505   2.459  0.00  0.00     0.198 C 
HETATM   65  O6  4GA     7      -1.575  -6.874   2.544  0.00  0.00    -0.398 OA
HETATM   66  H6O 4GA     7      -0.751  -7.372   2.438  0.00  0.00     0.209 HD
HETATM   67  O3  4GA     7      -1.349  -5.796  -2.462  0.00  0.00    -0.390 OA
HETATM   68  H3O 4GA     7      -0.735  -5.979  -3.191  0.00  0.00     0.210 HD
HETATM   69  O2  4GA     7       1.406  -6.374  -2.444  0.00  0.00    -0.388 OA
HETATM   70  H2O 4GA     7       2.052  -5.638  -2.450  0.00  0.00     0.210 HD
HETATM   71  O2  4GA     3      -4.033   5.133  -2.444  0.00  0.00    -0.388 OA
HETATM   72  H2O 4GA     3      -4.295   4.190  -2.450  0.00  0.00     0.210 HD
HETATM   73  O3  4GA     3      -1.299   5.808  -2.462  0.00  0.00    -0.390 OA
HETATM   74  H3O 4GA     3      -1.932   5.706  -3.191  0.00  0.00     0.210 HD
HETATM   75  C6  4GA     3      -1.293   5.488   2.459  0.00  0.00     0.198 C 
HETATM   76  O6  4GA     3      -1.564   6.877   2.544  0.00  0.00    -0.398 OA
HETATM   77  H6O 4GA     3      -2.522   6.969   2.438  0.00  0.00     0.209 HD
HETATM   78  C6  4GA     6       3.546  -4.383   2.459  0.00  0.00     0.198 C 
HETATM   79  O6  4GA     6       4.393  -5.517   2.544  0.00  0.00    -0.398 OA
HETATM   80  H6O 4GA     6       5.296  -5.184   2.439  0.00  0.00     0.209 HD
HETATM   81  O3  4GA     6       3.690  -4.669  -2.462  0.00  0.00    -0.390 OA
HETATM   82  H3O 4GA     6       4.217  -4.303  -3.191  0.00  0.00     0.210 HD
HETATM   83  O2  4GA     6       5.860  -2.875  -2.443  0.00  0.00    -0.388 OA
HETATM   84  H2O 4GA     6       5.687  -1.911  -2.450  0.00  0.00     0.210 HD
HETATM   85  O2  4GA     4       1.498   6.353  -2.444  0.00  0.00    -0.388 OA
HETATM   86  H2O 4GA     4       0.597   5.970  -2.450  0.00  0.00     0.210 HD
HETATM   87  O3  4GA     4       3.730   4.637  -2.462  0.00  0.00    -0.390 OA
HETATM   88  H3O 4GA     4       3.257   5.067  -3.191  0.00  0.00     0.210 HD
HETATM   89  C6  4GA     4       3.484   4.432   2.459  0.00  0.00     0.198 C 
HETATM   90  O6  4GA     4       4.402   5.510   2.544  0.00  0.00    -0.398 OA
HETATM   91  H6O 4GA     4       3.875   6.317   2.438  0.00  0.00     0.209 HD
HETATM   92  C6  4GA     5       5.637   0.039   2.459  0.00  0.00     0.198 C 
HETATM   93  O6  4GA     5       7.052  -0.005   2.544  0.00  0.00    -0.398 OA
HETATM   94  H6O 4GA     5       7.355   0.908   2.438  0.00  0.00     0.209 HD
HETATM   95  O3  4GA     5       5.951  -0.025  -2.462  0.00  0.00    -0.390 OA
HETATM   96  H3O 4GA     5       5.993   0.613  -3.191  0.00  0.00     0.210 HD
HETATM   97  O2  4GA     5       5.902   2.789  -2.444  0.00  0.00    -0.388 OA
HETATM   98  H2O 4GA     5       5.040   3.255  -2.450  0.00  0.00     0.210 HD
