HETATM    1  C1  RGA     1      -3.747  -4.885  -0.005  0.00  0.00     0.292 C 
HETATM    2  C2  RGA     1      -4.601  -4.513  -1.228  0.00  0.00     0.207 C 
HETATM    3  C3  RGA     1      -4.721  -2.998  -1.380  0.00  0.00     0.183 C 
HETATM    4  C4  RGA     1      -5.163  -2.362  -0.052  0.00  0.00     0.187 C 
HETATM    5  O4  RGA     1      -5.035  -0.944  -0.229  0.00  0.00    -0.348 OA
HETATM    6  C5  RGA     1      -4.293  -2.835   1.124  0.00  0.00     0.180 C 
HETATM    7  O5  RGA     1      -4.258  -4.273   1.156  0.00  0.00    -0.348 OA
HETATM    8  C1  RGA     2      -6.156  -0.116  -0.005  0.00  0.00     0.292 C 
HETATM    9  C2  RGA     2      -6.397   0.783  -1.228  0.00  0.00     0.207 C 
HETATM   10  C3  RGA     2      -5.288   1.822  -1.380  0.00  0.00     0.183 C 
HETATM   11  C4  RGA     2      -5.065   2.563  -0.052  0.00  0.00     0.187 C 
HETATM   12  O4  RGA     2      -3.878   3.348  -0.229  0.00  0.00    -0.348 OA
HETATM   13  C5  RGA     2      -4.893   1.589   1.124  0.00  0.00     0.180 C 
HETATM   14  O5  RGA     2      -5.995   0.664   1.156  0.00  0.00    -0.348 OA
HETATM   15  C1  RGA     3      -3.930   4.740  -0.005  0.00  0.00     0.292 C 
HETATM   16  C2  RGA     3      -3.376   5.489  -1.228  0.00  0.00     0.207 C 
HETATM   17  C3  RGA     3      -1.872   5.269  -1.380  0.00  0.00     0.183 C 
HETATM   18  C4  RGA     3      -1.155   5.558  -0.052  0.00  0.00     0.187 C 
HETATM   19  O4  RGA     3       0.199   5.119  -0.229  0.00  0.00    -0.348 OA
HETATM   20  C5  RGA     3      -1.808   4.816   1.124  0.00  0.00     0.180 C 
HETATM   21  O5  RGA     3      -3.219   5.102   1.156  0.00  0.00    -0.348 OA
HETATM   22  C1  RGA     4       1.256   6.027  -0.005  0.00  0.00     0.292 C 
HETATM   23  C2  RGA     4       2.187   6.062  -1.228  0.00  0.00     0.207 C 
HETATM   24  C3  RGA     4       2.953   4.750  -1.380  0.00  0.00     0.183 C 
HETATM   25  C4  RGA     4       3.626   4.368  -0.052  0.00  0.00     0.187 C 
HETATM   26  O4  RGA     4       4.127   3.036  -0.229  0.00  0.00    -0.348 OA
HETATM   27  C5  RGA     4       2.638   4.417   1.124  0.00  0.00     0.180 C 
HETATM   28  O5  RGA     4       1.982   5.697   1.156  0.00  0.00    -0.348 OA
HETATM   29  C1  RGA     5       5.495   2.775  -0.005  0.00  0.00     0.292 C 
HETATM   30  C2  RGA     5       6.102   2.071  -1.228  0.00  0.00     0.207 C 
HETATM   31  C3  RGA     5       5.554   0.653  -1.380  0.00  0.00     0.183 C 
HETATM   32  C4  RGA     5       5.676  -0.111  -0.052  0.00  0.00     0.187 C 
HETATM   33  O4  RGA     5       4.947  -1.334  -0.229  0.00  0.00    -0.348 OA
HETATM   34  C5  RGA     5       5.098   0.692   1.124  0.00  0.00     0.180 C 
HETATM   35  O5  RGA     5       5.690   2.002   1.156  0.00  0.00    -0.348 OA
HETATM   36  C1  RGA     6       5.597  -2.566  -0.005  0.00  0.00     0.292 C 
HETATM   37  C2  RGA     6       5.424  -3.480  -1.228  0.00  0.00     0.207 C 
HETATM   38  C3  RGA     6       3.974  -3.935  -1.380  0.00  0.00     0.183 C 
HETATM   39  C4  RGA     6       3.452  -4.507  -0.052  0.00  0.00     0.187 C 
HETATM   40  O4  RGA     6       2.041  -4.699  -0.229  0.00  0.00    -0.348 OA
HETATM   41  C5  RGA     6       3.719  -3.555   1.124  0.00  0.00     0.180 C 
HETATM   42  O5  RGA     6       5.113  -3.200   1.156  0.00  0.00    -0.348 OA
HETATM   43  C1  UGA     7       1.484  -5.976  -0.005  0.00  0.00     0.292 C 
HETATM   44  C2  UGA     7       0.661  -6.411  -1.228  0.00  0.00     0.204 C 
HETATM   45  C3  UGA     7      -0.599  -5.560  -1.380  0.00  0.00     0.183 C 
HETATM   46  C4  UGA     7      -1.372  -5.509  -0.052  0.00  0.00     0.187 C 
HETATM   47  O4  UGA     7      -2.401  -4.526  -0.229  1.00  0.00    -0.348 OA
HETATM   48  C5  UGA     7      -0.460  -5.124   1.124  0.00  0.00     0.180 C 
HETATM   49  O5  UGA     7       0.686  -5.993   1.156  0.00  0.00    -0.348 OA
HETATM   50  C6  RGA     1      -4.748  -2.381   2.512  0.00  0.00     0.201 C 
HETATM   51  O6  RGA     1      -5.980  -2.946   2.930  0.00  0.00    -0.393 OA
HETATM   52  CH3 MRG     8      -7.095  -2.071   2.930  0.00  0.00     0.201 C 
HETATM   53  O3  RGA     1      -5.657  -2.726  -2.401  0.00  0.00    -0.390 OA
HETATM   54  H3  RGA     1      -5.328  -3.152  -3.302  0.00  0.00     0.210 HD
HETATM   55  O2  RGA     1      -4.014  -5.138  -2.364  0.00  0.00    -0.383 OA
HETATM   56  CH3 MRG     9      -4.912  -5.486  -3.418  0.00  0.00     0.202 C 
HETATM   57  O2  RGA     2      -6.520  -0.065  -2.364  0.00  0.00    -0.383 OA
HETATM   58  CH3 MRG    11      -7.352   0.420  -3.418  0.00  0.00     0.202 C 
HETATM   59  O3  UGA     7      -1.396  -6.122  -2.401  0.00  0.00    -0.390 OA
HETATM   60  H3  UGA     7      -0.857  -6.129  -3.302  0.00  0.00     0.210 HD
HETATM   61  C6  UGA     7      -1.099  -5.196   2.512  0.00  0.00     0.201 C 
HETATM   62  O6  UGA     7      -1.426  -6.512   2.930  0.00  0.00    -0.393 OA
HETATM   63  CH3 MRG    20      -2.805  -6.838   2.930  0.00  0.00     0.201 C 
HETATM   64  O3  RGA     2      -5.658   2.723  -2.401  0.00  0.00    -0.390 OA
HETATM   65  H3  RGA     2      -5.784   2.199  -3.302  0.00  0.00     0.210 HD
HETATM   66  C6  RGA     2      -4.821   2.229   2.512  0.00  0.00     0.201 C 
HETATM   67  O6  RGA     2      -6.032   2.839   2.930  0.00  0.00    -0.393 OA
HETATM   68  CH3 MRG    10      -6.042   4.256   2.930  0.00  0.00     0.201 C 
HETATM   69  O2  UGA     7       1.515  -6.341  -2.364  0.00  0.00    -0.388 OA
HETATM   70  H2O UGA     7       1.858  -5.356  -2.484  0.00  0.00     0.210 HD
HETATM   71  O2  RGA     3      -4.116   5.056  -2.364  0.00  0.00    -0.383 OA
HETATM   72  CH3 MRG    13      -4.256   6.010  -3.418  0.00  0.00     0.202 C 
HETATM   73  O3  RGA     6       3.916  -4.909  -2.401  0.00  0.00    -0.390 OA
HETATM   74  H3  RGA     6       4.258  -4.492  -3.302  0.00  0.00     0.210 HD
HETATM   75  C6  RGA     6       3.377  -4.100   2.512  0.00  0.00     0.201 C 
HETATM   76  O6  RGA     6       4.203  -5.175   2.930  0.00  0.00    -0.393 OA
HETATM   77  CH3 MRG    18       3.597  -6.457   2.930  0.00  0.00     0.201 C 
HETATM   78  O3  RGA     3      -1.399   6.121  -2.401  0.00  0.00    -0.390 OA
HETATM   79  H3  RGA     3      -1.888   5.894  -3.302  0.00  0.00     0.210 HD
HETATM   80  C6  RGA     3      -1.264   5.159   2.512  0.00  0.00     0.201 C 
HETATM   81  O6  RGA     3      -1.541   6.486   2.930  0.00  0.00    -0.393 OA
HETATM   82  CH3 MRG    12      -0.440   7.378   2.930  0.00  0.00     0.201 C 
HETATM   83  O2  RGA     6       5.902  -2.769  -2.364  0.00  0.00    -0.383 OA
HETATM   84  CH3 MRG    19       6.442  -3.568  -3.418  0.00  0.00     0.202 C 
HETATM   85  O2  RGA     4       1.386   6.371  -2.364  0.00  0.00    -0.383 OA
HETATM   86  CH3 MRG    15       2.045   7.074  -3.418  0.00  0.00     0.202 C 
HETATM   87  C6  RGA     5       5.311   0.085   2.512  0.00  0.00     0.201 C 
HETATM   88  O6  RGA     5       6.666   0.059   2.930  0.00  0.00    -0.393 OA
HETATM   89  CH3 MRG    16       7.291  -1.213   2.930  0.00  0.00     0.201 C 
HETATM   90  O3  RGA     5       6.279   0.001  -2.401  0.00  0.00    -0.390 OA
HETATM   91  H3  RGA     5       6.166   0.528  -3.302  0.00  0.00     0.210 HD
HETATM   92  O3  RGA     4       3.914   4.910  -2.401  0.00  0.00    -0.390 OA
HETATM   93  H3  RGA     4       3.432   5.151  -3.302  0.00  0.00     0.210 HD
HETATM   94  C6  RGA     4       3.245   4.204   2.512  0.00  0.00     0.201 C 
HETATM   95  O6  RGA     4       4.110   5.249   2.930  0.00  0.00    -0.393 OA
HETATM   96  CH3 MRG    14       5.494   4.943   2.930  0.00  0.00     0.201 C 
HETATM   97  O2  RGA     5       5.845   2.889  -2.364  0.00  0.00    -0.383 OA
HETATM   98  CH3 MRG    17       6.806   2.812  -3.418  0.00  0.00     0.202 C 
