HETATM    1  C1  4GA     1       5.931   3.574   0.130  0.00  0.00     0.292 C 
HETATM    2  C2  4GA     1       5.828   4.607  -1.002  0.00  0.00     0.204 C 
HETATM    3  C3  4GA     1       4.362   4.926  -1.318  0.00  0.00     0.183 C 
HETATM    4  C4  4GA     1       3.611   5.270  -0.033  0.00  0.00     0.187 C 
HETATM    5  C5  4GA     1       3.738   4.083   0.940  0.00  0.00     0.180 C 
HETATM    6  O5  4GA     1       5.146   3.950   1.242  0.00  0.00    -0.348 OA
HETATM    7  O4  4GA     1       2.259   5.551  -0.394  0.00  0.00    -0.348 OA
HETATM    8  C1  4GA     2       1.667   6.720   0.133  0.00  0.00     0.292 C 
HETATM    9  C2  4GA     2       0.865   7.382  -0.998  0.00  0.00     0.204 C 
HETATM   10  C3  4GA     2      -0.398   6.572  -1.317  0.00  0.00     0.183 C 
HETATM   11  C4  4GA     2      -1.173   6.280  -0.034  0.00  0.00     0.187 C 
HETATM   12  C5  4GA     2      -0.245   5.529   0.939  0.00  0.00     0.180 C 
HETATM   13  O5  4GA     2       0.845   6.428   1.244  0.00  0.00    -0.348 OA
HETATM   14  O4  4GA     2      -2.327   5.523  -0.398  0.00  0.00    -0.348 OA
HETATM   15  C1  4GA     3      -3.574   5.931   0.125  0.00  0.00     0.292 C 
HETATM   16  C2  4GA     3      -4.606   5.827  -1.007  0.00  0.00     0.204 C 
HETATM   17  C3  4GA     3      -4.926   4.360  -1.322  0.00  0.00     0.183 C 
HETATM   18  C4  4GA     3      -5.270   3.611  -0.037  0.00  0.00     0.187 C 
HETATM   19  C5  4GA     3      -4.083   3.739   0.937  0.00  0.00     0.180 C 
HETATM   20  O5  4GA     3      -3.950   5.146   1.238  0.00  0.00    -0.348 OA
HETATM   21  O4  4GA     3      -5.551   2.259  -0.397  0.00  0.00    -0.348 OA
HETATM   22  C1  4GA     4      -6.721   1.667   0.130  0.00  0.00     0.292 C 
HETATM   23  C2  4GA     4      -7.382   0.864  -1.000  0.00  0.00     0.204 C 
HETATM   24  C3  4GA     4      -6.572  -0.399  -1.318  0.00  0.00     0.183 C 
HETATM   25  C4  4GA     4      -6.280  -1.173  -0.034  0.00  0.00     0.187 C 
HETATM   26  C5  4GA     4      -5.529  -0.245   0.939  0.00  0.00     0.180 C 
HETATM   27  O5  4GA     4      -6.429   0.846   1.241  0.00  0.00    -0.348 OA
HETATM   28  O4  4GA     4      -5.523  -2.327  -0.398  0.00  0.00    -0.348 OA
HETATM   29  C1  4GA     5      -5.931  -3.574   0.126  0.00  0.00     0.292 C 
HETATM   30  C2  4GA     5      -5.827  -4.607  -1.006  0.00  0.00     0.204 C 
HETATM   31  C3  4GA     5      -4.360  -4.926  -1.320  0.00  0.00     0.183 C 
HETATM   32  C4  4GA     5      -3.611  -5.269  -0.034  0.00  0.00     0.187 C 
HETATM   33  C5  4GA     5      -3.739  -4.082   0.939  0.00  0.00     0.180 C 
HETATM   34  O5  4GA     5      -5.147  -3.949   1.239  0.00  0.00    -0.348 OA
HETATM   35  O4  4GA     5      -2.259  -5.551  -0.394  0.00  0.00    -0.348 OA
HETATM   36  C1  4GA     6      -1.667  -6.720   0.134  0.00  0.00     0.292 C 
HETATM   37  C2  4GA     6      -0.864  -7.382  -0.996  0.00  0.00     0.204 C 
HETATM   38  C3  4GA     6       0.399  -6.572  -1.314  0.00  0.00     0.183 C 
HETATM   39  C4  4GA     6       1.173  -6.280  -0.030  0.00  0.00     0.187 C 
HETATM   40  C5  4GA     6       0.245  -5.528   0.942  0.00  0.00     0.180 C 
HETATM   41  O5  4GA     6      -0.846  -6.428   1.245  0.00  0.00    -0.348 OA
HETATM   42  O4  4GA     6       2.327  -5.524  -0.394  0.00  0.00    -0.348 OA
HETATM   43  C1  4GA     7       3.574  -5.931   0.131  0.00  0.00     0.292 C 
HETATM   44  C2  4GA     7       4.608  -5.828  -1.001  0.00  0.00     0.204 C 
HETATM   45  C3  4GA     7       4.927  -4.361  -1.316  0.00  0.00     0.183 C 
HETATM   46  C4  4GA     7       5.270  -3.611  -0.031  0.00  0.00     0.187 C 
HETATM   47  C5  4GA     7       4.082  -3.738   0.942  0.00  0.00     0.180 C 
HETATM   48  O5  4GA     7       3.949  -5.146   1.243  0.00  0.00    -0.348 OA
HETATM   49  O4  4GA     7       5.552  -2.259  -0.391  0.00  0.00    -0.348 OA
HETATM   50  C1  4GA     8       6.720  -1.667   0.137  0.00  0.00     0.292 C 
HETATM   51  C2  4GA     8       7.383  -0.865  -0.993  0.00  0.00     0.204 C 
HETATM   52  C3  4GA     8       6.573   0.398  -1.313  0.00  0.00     0.183 C 
HETATM   53  C4  4GA     8       6.280   1.173  -0.030  0.00  0.00     0.187 C 
HETATM   54  C5  4GA     8       5.529   0.245   0.943  0.00  0.00     0.180 C 
HETATM   55  O5  4GA     8       6.428  -0.845   1.247  0.00  0.00    -0.348 OA
HETATM   56  O4  4GA     8       5.524   2.327  -0.394  0.00  0.00    -0.348 OA
HETATM   57  C6  4GA     1       2.984   4.188   2.278  0.00  0.00     0.198 C 
HETATM   58  O6  4GA     1       2.034   3.135   2.450  0.00  0.00    -0.398 OA
HETATM   59  H6O 4GA     1       2.517   2.282   2.485  0.00  0.00     0.209 HD
HETATM   60  O3  4GA     1       4.263   6.035  -2.207  0.00  0.00    -0.390 OA
HETATM   61  H3O 4GA     1       4.794   5.812  -2.987  0.00  0.00     0.210 HD
HETATM   62  O2  4GA     1       6.536   4.198  -2.160  0.00  0.00    -0.388 OA
HETATM   63  H2O 4GA     1       6.465   3.227  -2.232  0.00  0.00     0.210 HD
HETATM   64  O2  4GA     2       1.655   7.597  -2.154  0.00  0.00    -0.388 OA
HETATM   65  H2O 4GA     2       2.291   6.860  -2.229  0.00  0.00     0.210 HD
HETATM   66  C6  4GA     8       5.070   0.854   2.280  0.00  0.00     0.198 C 
HETATM   67  O6  4GA     8       3.654   0.778   2.454  0.00  0.00    -0.398 OA
HETATM   68  H6O 4GA     8       3.394  -0.167   2.489  0.00  0.00     0.209 HD
HETATM   69  O3  4GA     8       7.291   1.252  -2.200  0.00  0.00    -0.390 OA
HETATM   70  H3O 4GA     8       7.509   0.717  -2.979  0.00  0.00     0.210 HD
HETATM   71  O3  4GA     2      -1.251   7.289  -2.205  0.00  0.00    -0.390 OA
HETATM   72  H3O 4GA     2      -0.717   7.506  -2.984  0.00  0.00     0.210 HD
HETATM   73  C6  4GA     2      -0.855   5.071   2.277  0.00  0.00     0.198 C 
HETATM   74  O6  4GA     2      -0.779   3.655   2.452  0.00  0.00    -0.398 OA
HETATM   75  H6O 4GA     2       0.167   3.395   2.487  0.00  0.00     0.209 HD
HETATM   76  O2  4GA     8       7.599  -1.655  -2.150  0.00  0.00    -0.388 OA
HETATM   77  H2O 4GA     8       6.861  -2.291  -2.225  0.00  0.00     0.210 HD
HETATM   78  O2  4GA     3      -4.197   6.534  -2.166  0.00  0.00    -0.388 OA
HETATM   79  H2O 4GA     3      -3.226   6.463  -2.237  0.00  0.00     0.210 HD
HETATM   80  O3  4GA     7       6.037  -4.262  -2.205  0.00  0.00    -0.390 OA
HETATM   81  H3O 4GA     7       5.814  -4.793  -2.984  0.00  0.00     0.210 HD
HETATM   82  C6  4GA     7       4.187  -2.984   2.280  0.00  0.00     0.198 C 
HETATM   83  O6  4GA     7       3.134  -2.035   2.451  0.00  0.00    -0.398 OA
HETATM   84  H6O 4GA     7       2.281  -2.517   2.486  0.00  0.00     0.209 HD
HETATM   85  O3  4GA     3      -6.035   4.261  -2.212  0.00  0.00    -0.390 OA
HETATM   86  H3O 4GA     3      -5.810   4.792  -2.991  0.00  0.00     0.210 HD
HETATM   87  C6  4GA     3      -4.189   2.985   2.275  0.00  0.00     0.198 C 
HETATM   88  O6  4GA     3      -3.136   2.036   2.448  0.00  0.00    -0.398 OA
HETATM   89  H6O 4GA     3      -2.283   2.518   2.484  0.00  0.00     0.209 HD
HETATM   90  O2  4GA     7       4.200  -6.535  -2.159  0.00  0.00    -0.388 OA
HETATM   91  H2O 4GA     7       3.228  -6.465  -2.231  0.00  0.00     0.210 HD
HETATM   92  O2  4GA     4      -7.597   1.654  -2.157  0.00  0.00    -0.388 OA
HETATM   93  H2O 4GA     4      -6.859   2.290  -2.232  0.00  0.00     0.210 HD
HETATM   94  O3  4GA     6       1.253  -7.290  -2.201  0.00  0.00    -0.390 OA
HETATM   95  H3O 4GA     6       0.719  -7.508  -2.980  0.00  0.00     0.210 HD
HETATM   96  C6  4GA     6       0.853  -5.070   2.279  0.00  0.00     0.198 C 
HETATM   97  O6  4GA     6       0.777  -3.654   2.454  0.00  0.00    -0.398 OA
HETATM   98  H6O 4GA     6      -0.169  -3.395   2.488  0.00  0.00     0.209 HD
HETATM   99  C6  4GA     4      -5.072  -0.853   2.276  0.00  0.00     0.198 C 
HETATM  100  O6  4GA     4      -3.657  -0.777   2.452  0.00  0.00    -0.398 OA
HETATM  101  H6O 4GA     4      -3.397   0.168   2.487  0.00  0.00     0.209 HD
HETATM  102  O3  4GA     4      -7.288  -1.252  -2.206  0.00  0.00    -0.390 OA
HETATM  103  H3O 4GA     4      -7.506  -0.718  -2.985  0.00  0.00     0.210 HD
HETATM  104  O2  4GA     6      -1.653  -7.598  -2.153  0.00  0.00    -0.388 OA
HETATM  105  H2O 4GA     6      -2.289  -6.860  -2.228  0.00  0.00     0.210 HD
HETATM  106  O2  4GA     5      -6.534  -4.199  -2.164  0.00  0.00    -0.388 OA
HETATM  107  H2O 4GA     5      -6.463  -3.227  -2.236  0.00  0.00     0.210 HD
HETATM  108  C6  4GA     5      -2.986  -4.187   2.277  0.00  0.00     0.198 C 
HETATM  109  O6  4GA     5      -2.036  -3.134   2.450  0.00  0.00    -0.398 OA
HETATM  110  H6O 4GA     5      -2.519  -2.281   2.485  0.00  0.00     0.209 HD
HETATM  111  O3  4GA     5      -4.261  -6.036  -2.209  0.00  0.00    -0.390 OA
HETATM  112  H3O 4GA     5      -4.791  -5.812  -2.989  0.00  0.00     0.210 HD
